# Model for PE

      4195     atoms
      4032     bonds
         0     angles
         0     dihedrals

        65     atom types
         1     bond types
         0     angle types
         0     dihedral types

    0.0000  186.1105 xlo xhi
    0.0000  186.1105 ylo yhi
    0.0000  186.1105 zlo zhi

Masses

         1          56.00
         2          56.00
         3          56.00
         4          56.00
         5          56.00
         6          56.00
         7          56.00
         8          56.00
         9          56.00
        10          56.00
        11          56.00
        12          56.00
        13          56.00
        14          56.00
        15          56.00
        16          56.00
        17          56.00
        18          56.00
        19          56.00
        20          56.00
        21          56.00
        22          56.00
        23          56.00
        24          56.00
        25          56.00
        26          56.00
        27          56.00
        28          56.00
        29          56.00
        30          56.00
        31          56.00
        32          56.00
        33          56.00
        34          56.00
        35          56.00
        36          56.00
        37          56.00
        38          56.00
        39          56.00
        40          56.00
        41          56.00
        42          56.00
        43          56.00
        44          56.00
        45          56.00
        46          56.00
        47          56.00
        48          56.00
        49          56.00
        50          56.00
        51          56.00
        52          56.00
        53          56.00
        54          56.00
        55          56.00
        56          56.00
        57          56.00
        58          56.00
        59          56.00
        60          56.00
        61          56.00
        62          56.00
        63          56.00
        64          56.00
        65         420.01 

Atoms

         1         1         1  146.2297  179.4637   39.8808
         2         1         1  142.9063  182.7871   39.8808
         3         1         1  139.5829  179.4637   39.8808
         4         1         1  142.9063  179.4637   43.2042
         5         1         1  146.2297  176.1403   43.2042
         6         1         1  146.2297  179.4637   46.5276
         7         1         1  142.9063  182.7871   46.5276
         8         1         1  139.5829  182.7871   49.8510
         9         1         1  139.5829  179.4637   53.1744
        10         1         1  136.2595  176.1403   53.1744
        11         1         1  132.9361  179.4637   53.1744
        12         1         1  136.2595  182.7871   53.1744
        13         1         1  139.5829  182.7871   56.4978
        14         1         1  136.2595    0.0000   56.4978
        15         1         1  132.9361  182.7871   56.4978
        16         1         1  136.2595  179.4637   56.4978
        17         1         1  139.5829  179.4637   59.8212
        18         1         1  136.2595  179.4637   63.1446
        19         1         1  139.5829  182.7871   63.1446
        20         1         1  136.2595  182.7871   66.4680
        21         1         1  132.9361    0.0000   66.4680
        22         1         1  132.9361  182.7871   69.7914
        23         1         1  136.2595  182.7871   73.1148
        24         1         1  136.2595  179.4637   69.7914
        25         1         1  139.5829  179.4637   66.4680
        26         1         1  139.5829  182.7871   69.7914
        27         1         1  142.9063  182.7871   73.1148
        28         1         1  146.2297  182.7871   69.7914
        29         1         1  146.2297    0.0000   66.4680
        30         1         1  149.5531    0.0000   63.1446
        31         1         1  152.8765    0.0000   66.4680
        32         1         1  156.1999    3.3234   66.4680
        33         1         1  159.5233    3.3234   63.1446
        34         1         1  156.1999    0.0000   63.1446
        35         1         1  159.5233  182.7871   63.1446
        36         1         1  162.8467  182.7871   66.4680
        37         1         1  159.5233  179.4637   66.4680
        38         1         1  162.8467  179.4637   69.7914
        39         1         1  166.1701  182.7871   69.7914
        40         1         1  169.4935  182.7871   73.1148
        41         1         1  172.8169    0.0000   73.1148
        42         1         1  172.8169  182.7871   76.4382
        43         1         1  176.1403  182.7871   73.1148
        44         1         1  179.4637  182.7871   76.4382
        45         1         1  179.4637    0.0000   73.1148
        46         1         1  182.7871  182.7871   73.1148
        47         1         1  182.7871  179.4637   76.4382
        48         1         1    0.0000  176.1403   76.4382
        49         1         1    0.0000  179.4637   73.1148
        50         1         1  182.7871  179.4637   69.7914
        51         1         1    0.0000  179.4637   66.4680
        52         1         1  182.7871  182.7871   66.4680
        53         1         1  182.7871    0.0000   69.7914
        54         1         1  179.4637    3.3234   69.7914
        55         1         1  176.1403    3.3234   73.1148
        56         1         1  176.1403    6.6468   69.7914
        57         1         1  172.8169    6.6468   73.1148
        58         1         1  172.8169    9.9702   76.4382
        59         1         1  169.4935    9.9702   73.1148
        60         1         1  169.4935    6.6468   76.4382
        61         1         1  166.1701    6.6468   79.7616
        62         1         1  162.8467    3.3234   79.7616
        63         1         1  159.5233    3.3234   76.4382
        64         1         1  156.1999    6.6468   76.4382
        65         2         2   36.5574  149.5531  166.1701
        66         2         2   36.5574  152.8765  169.4935
        67         2         2   39.8808  156.1999  169.4935
        68         2         2   36.5574  156.1999  166.1701
        69         2         2   36.5574  159.5233  169.4935
        70         2         2   36.5574  162.8467  166.1701
        71         2         2   33.2340  166.1701  166.1701
        72         2         2   33.2340  162.8467  162.8467
        73         2         2   29.9106  159.5233  162.8467
        74         2         2   29.9106  156.1999  159.5233
        75         2         2   33.2340  152.8765  159.5233
        76         2         2   36.5574  156.1999  159.5233
        77         2         2   39.8808  152.8765  159.5233
        78         2         2   39.8808  156.1999  162.8467
        79         2         2   39.8808  152.8765  166.1701
        80         2         2   36.5574  152.8765  162.8467
        81         2         2   33.2340  152.8765  166.1701
        82         2         2   29.9106  149.5531  166.1701
        83         2         2   26.5872  149.5531  169.4935
        84         2         2   26.5872  152.8765  172.8169
        85         2         2   26.5872  149.5531  176.1403
        86         2         2   23.2638  152.8765  176.1403
        87         2         2   23.2638  149.5531  172.8169
        88         2         2   19.9404  152.8765  172.8169
        89         2         2   23.2638  156.1999  172.8169
        90         2         2   23.2638  152.8765  169.4935
        91         2         2   26.5872  156.1999  169.4935
        92         2         2   23.2638  156.1999  166.1701
        93         2         2   19.9404  152.8765  166.1701
        94         2         2   19.9404  149.5531  169.4935
        95         2         2   16.6170  149.5531  166.1701
        96         2         2   16.6170  152.8765  162.8467
        97         2         2   13.2936  152.8765  159.5233
        98         2         2   13.2936  156.1999  162.8467
        99         2         2   16.6170  156.1999  159.5233
       100         2         2   19.9404  159.5233  159.5233
       101         2         2   19.9404  156.1999  156.1999
       102         2         2   16.6170  156.1999  152.8765
       103         2         2   16.6170  152.8765  156.1999
       104         2         2   13.2936  156.1999  156.1999
       105         2         2    9.9702  156.1999  152.8765
       106         2         2    9.9702  152.8765  149.5531
       107         2         2    6.6468  152.8765  146.2297
       108         2         2    9.9702  156.1999  146.2297
       109         2         2   13.2936  156.1999  149.5531
       110         2         2   16.6170  159.5233  149.5531
       111         2         2   19.9404  159.5233  152.8765
       112         2         2   23.2638  159.5233  149.5531
       113         2         2   26.5872  162.8467  149.5531
       114         2         2   26.5872  159.5233  146.2297
       115         2         2   26.5872  156.1999  149.5531
       116         2         2   26.5872  152.8765  146.2297
       117         2         2   29.9106  152.8765  142.9063
       118         2         2   26.5872  156.1999  142.9063
       119         2         2   23.2638  152.8765  142.9063
       120         2         2   23.2638  156.1999  139.5829
       121         2         2   23.2638  159.5233  142.9063
       122         2         2   19.9404  156.1999  142.9063
       123         2         2   19.9404  152.8765  146.2297
       124         2         2   23.2638  156.1999  146.2297
       125         2         2   19.9404  159.5233  146.2297
       126         2         2   19.9404  162.8467  142.9063
       127         2         2   16.6170  166.1701  142.9063
       128         2         2   16.6170  162.8467  139.5829
       129         3         3  106.3489  169.4935  182.7871
       130         3         3  106.3489  172.8169    0.0000
       131         3         3  103.0255  176.1403    0.0000
       132         3         3  103.0255  172.8169    3.3234
       133         3         3  103.0255  169.4935    0.0000
       134         3         3  103.0255  166.1701    3.3234
       135         3         3  103.0255  169.4935    6.6468
       136         3         3  106.3489  172.8169    6.6468
       137         3         3  106.3489  169.4935    3.3234
       138         3         3  106.3489  166.1701    6.6468
       139         3         3  109.6723  166.1701    9.9702
       140         3         3  112.9957  166.1701    6.6468
       141         3         3  109.6723  169.4935    6.6468
       142         3         3  106.3489  169.4935    9.9702
       143         3         3  103.0255  172.8169    9.9702
       144         3         3  103.0255  176.1403   13.2936
       145         3         3  106.3489  172.8169   13.2936
       146         3         3  106.3489  176.1403   16.6170
       147         3         3  109.6723  176.1403   19.9404
       148         3         3  109.6723  172.8169   23.2638
       149         3         3  106.3489  172.8169   26.5872
       150         3         3  109.6723  176.1403   26.5872
       151         3         3  112.9957  172.8169   26.5872
       152         3         3  112.9957  169.4935   23.2638
       153         3         3  116.3191  166.1701   23.2638
       154         3         3  116.3191  169.4935   19.9404
       155         3         3  119.6425  166.1701   19.9404
       156         3         3  119.6425  169.4935   16.6170
       157         3         3  116.3191  169.4935   13.2936
       158         3         3  116.3191  172.8169   16.6170
       159         3         3  112.9957  172.8169   19.9404
       160         3         3  112.9957  176.1403   23.2638
       161         3         3  116.3191  176.1403   26.5872
       162         3         3  119.6425  172.8169   26.5872
       163         3         3  119.6425  169.4935   29.9106
       164         3         3  122.9659  166.1701   29.9106
       165         3         3  119.6425  162.8467   29.9106
       166         3         3  119.6425  166.1701   33.2340
       167         3         3  122.9659  162.8467   33.2340
       168         3         3  122.9659  159.5233   36.5574
       169         3         3  119.6425  162.8467   36.5574
       170         3         3  116.3191  162.8467   39.8808
       171         3         3  112.9957  162.8467   36.5574
       172         3         3  116.3191  159.5233   36.5574
       173         3         3  112.9957  159.5233   33.2340
       174         3         3  116.3191  156.1999   33.2340
       175         3         3  112.9957  156.1999   29.9106
       176         3         3  109.6723  159.5233   29.9106
       177         3         3  106.3489  159.5233   26.5872
       178         3         3  106.3489  162.8467   29.9106
       179         3         3  109.6723  162.8467   26.5872
       180         3         3  112.9957  162.8467   29.9106
       181         3         3  116.3191  166.1701   29.9106
       182         3         3  116.3191  169.4935   26.5872
       183         3         3  112.9957  166.1701   26.5872
       184         3         3  109.6723  169.4935   26.5872
       185         3         3  112.9957  169.4935   29.9106
       186         3         3  116.3191  172.8169   29.9106
       187         3         3  119.6425  172.8169   33.2340
       188         3         3  119.6425  176.1403   36.5574
       189         3         3  122.9659  176.1403   33.2340
       190         3         3  119.6425  179.4637   33.2340
       191         3         3  119.6425  182.7871   36.5574
       192         3         3  122.9659    0.0000   36.5574
       193         4         4   56.4978   49.8510  106.3489
       194         4         4   53.1744   46.5276  106.3489
       195         4         4   49.8510   49.8510  106.3489
       196         4         4   53.1744   49.8510  103.0255
       197         4         4   56.4978   46.5276  103.0255
       198         4         4   53.1744   46.5276   99.7021
       199         4         4   56.4978   49.8510   99.7021
       200         4         4   53.1744   49.8510   96.3786
       201         4         4   53.1744   53.1744   99.7021
       202         4         4   49.8510   53.1744  103.0255
       203         4         4   49.8510   56.4978   99.7021
       204         4         4   46.5276   53.1744   99.7021
       205         4         4   46.5276   56.4978   96.3786
       206         4         4   43.2042   56.4978   99.7021
       207         4         4   46.5276   56.4978  103.0255
       208         4         4   49.8510   59.8212  103.0255
       209         4         4   49.8510   56.4978  106.3489
       210         4         4   46.5276   56.4978  109.6723
       211         4         4   46.5276   59.8212  112.9957
       212         4         4   43.2042   59.8212  116.3191
       213         4         4   43.2042   56.4978  112.9957
       214         4         4   46.5276   53.1744  112.9957
       215         4         4   43.2042   53.1744  116.3191
       216         4         4   43.2042   49.8510  112.9957
       217         4         4   39.8808   46.5276  112.9957
       218         4         4   43.2042   46.5276  109.6723
       219         4         4   46.5276   46.5276  112.9957
       220         4         4   43.2042   46.5276  116.3191
       221         4         4   46.5276   46.5276  119.6425
       222         4         4   43.2042   46.5276  122.9659
       223         4         4   46.5276   43.2042  122.9659
       224         4         4   46.5276   39.8808  119.6425
       225         4         4   49.8510   36.5574  119.6425
       226         4         4   53.1744   36.5574  122.9659
       227         4         4   49.8510   36.5574  126.2893
       228         4         4   49.8510   33.2340  122.9659
       229         4         4   46.5276   33.2340  119.6425
       230         4         4   43.2042   29.9106  119.6425
       231         4         4   43.2042   26.5872  122.9659
       232         4         4   39.8808   26.5872  119.6425
       233         4         4   43.2042   23.2638  119.6425
       234         4         4   43.2042   26.5872  116.3191
       235         4         4   46.5276   23.2638  116.3191
       236         4         4   49.8510   23.2638  112.9957
       237         4         4   53.1744   26.5872  112.9957
       238         4         4   53.1744   23.2638  109.6723
       239         4         4   49.8510   19.9404  109.6723
       240         4         4   53.1744   19.9404  112.9957
       241         4         4   53.1744   16.6170  116.3191
       242         4         4   49.8510   13.2936  116.3191
       243         4         4   46.5276   13.2936  112.9957
       244         4         4   49.8510   13.2936  109.6723
       245         4         4   53.1744   16.6170  109.6723
       246         4         4   56.4978   13.2936  109.6723
       247         4         4   59.8212   13.2936  106.3489
       248         4         4   56.4978    9.9702  106.3489
       249         4         4   53.1744    9.9702  103.0255
       250         4         4   53.1744    6.6468  106.3489
       251         4         4   49.8510    9.9702  106.3489
       252         4         4   46.5276    9.9702  103.0255
       253         4         4   46.5276   13.2936  106.3489
       254         4         4   43.2042    9.9702  106.3489
       255         4         4   39.8808   13.2936  106.3489
       256         4         4   39.8808    9.9702  109.6723
       257         5         5  169.4935  142.9063   93.0552
       258         5         5  172.8169  142.9063   96.3786
       259         5         5  172.8169  146.2297   93.0552
       260         5         5  176.1403  146.2297   89.7318
       261         5         5  176.1403  149.5531   86.4084
       262         5         5  172.8169  149.5531   89.7318
       263         5         5  169.4935  149.5531   86.4084
       264         5         5  172.8169  146.2297   86.4084
       265         5         5  169.4935  146.2297   83.0850
       266         5         5  166.1701  149.5531   83.0850
       267         5         5  162.8467  149.5531   79.7616
       268         5         5  162.8467  146.2297   83.0850
       269         5         5  162.8467  142.9063   79.7616
       270         5         5  159.5233  139.5829   79.7616
       271         5         5  159.5233  136.2595   83.0850
       272         5         5  162.8467  132.9361   83.0850
       273         5         5  162.8467  129.6127   79.7616
       274         5         5  159.5233  129.6127   76.4382
       275         5         5  159.5233  126.2893   73.1148
       276         5         5  156.1999  122.9659   73.1148
       277         5         5  156.1999  119.6425   76.4382
       278         5         5  156.1999  116.3191   73.1148
       279         5         5  152.8765  116.3191   76.4382
       280         5         5  156.1999  112.9957   76.4382
       281         5         5  156.1999  109.6723   73.1148
       282         5         5  152.8765  109.6723   76.4382
       283         5         5  149.5531  109.6723   73.1148
       284         5         5  149.5531  112.9957   69.7914
       285         5         5  146.2297  112.9957   66.4680
       286         5         5  149.5531  116.3191   66.4680
       287         5         5  152.8765  116.3191   69.7914
       288         5         5  156.1999  112.9957   69.7914
       289         5         5  159.5233  116.3191   69.7914
       290         5         5  162.8467  116.3191   73.1148
       291         5         5  162.8467  112.9957   69.7914
       292         5         5  159.5233  112.9957   66.4680
       293         5         5  156.1999  109.6723   66.4680
       294         5         5  152.8765  109.6723   63.1446
       295         5         5  149.5531  109.6723   66.4680
       296         5         5  146.2297  106.3489   66.4680
       297         5         5  149.5531  106.3489   63.1446
       298         5         5  146.2297  103.0255   63.1446
       299         5         5  149.5531  103.0255   59.8212
       300         5         5  152.8765   99.7021   59.8212
       301         5         5  152.8765   96.3786   56.4978
       302         5         5  149.5531   96.3786   53.1744
       303         5         5  149.5531   99.7021   49.8510
       304         5         5  146.2297  103.0255   49.8510
       305         5         5  142.9063   99.7021   49.8510
       306         5         5  146.2297   96.3786   49.8510
       307         5         5  146.2297   93.0552   46.5276
       308         5         5  149.5531   89.7318   46.5276
       309         5         5  152.8765   89.7318   49.8510
       310         5         5  152.8765   93.0552   46.5276
       311         5         5  152.8765   96.3786   49.8510
       312         5         5  156.1999   99.7021   49.8510
       313         5         5  156.1999   96.3786   53.1744
       314         5         5  156.1999   93.0552   49.8510
       315         5         5  152.8765   93.0552   53.1744
       316         5         5  156.1999   89.7318   53.1744
       317         5         5  159.5233   93.0552   53.1744
       318         5         5  162.8467   89.7318   53.1744
       319         5         5  166.1701   93.0552   53.1744
       320         5         5  166.1701   96.3786   49.8510
       321         6         6    6.6468  179.4637  172.8169
       322         6         6    3.3234  182.7871  172.8169
       323         6         6    3.3234  179.4637  169.4935
       324         6         6    0.0000  182.7871  169.4935
       325         6         6    3.3234    0.0000  169.4935
       326         6         6    3.3234    3.3234  166.1701
       327         6         6    3.3234    0.0000  162.8467
       328         6         6    6.6468  182.7871  162.8467
       329         6         6    9.9702  182.7871  166.1701
       330         6         6    9.9702  179.4637  162.8467
       331         6         6    6.6468  176.1403  162.8467
       332         6         6    6.6468  179.4637  166.1701
       333         6         6    3.3234  179.4637  162.8467
       334         6         6    3.3234  182.7871  166.1701
       335         6         6    0.0000  179.4637  166.1701
       336         6         6    3.3234  176.1403  166.1701
       337         6         6    0.0000  176.1403  169.4935
       338         6         6  182.7871  172.8169  169.4935
       339         6         6  179.4637  172.8169  172.8169
       340         6         6  179.4637  176.1403  169.4935
       341         6         6  176.1403  176.1403  172.8169
       342         6         6  172.8169  179.4637  172.8169
       343         6         6  169.4935  176.1403  172.8169
       344         6         6  172.8169  176.1403  169.4935
       345         6         6  172.8169  172.8169  166.1701
       346         6         6  169.4935  172.8169  169.4935
       347         6         6  166.1701  176.1403  169.4935
       348         6         6  162.8467  172.8169  169.4935
       349         6         6  159.5233  176.1403  169.4935
       350         6         6  162.8467  176.1403  172.8169
       351         6         6  162.8467  172.8169  176.1403
       352         6         6  162.8467  176.1403  179.4637
       353         6         6  166.1701  176.1403  182.7871
       354         6         6  162.8467  176.1403    0.0000
       355         6         6  162.8467  172.8169  182.7871
       356         6         6  166.1701  169.4935  182.7871
       357         6         6  169.4935  169.4935  179.4637
       358         6         6  169.4935  166.1701  176.1403
       359         6         6  169.4935  169.4935  172.8169
       360         6         6  169.4935  166.1701  169.4935
       361         6         6  169.4935  162.8467  172.8169
       362         6         6  166.1701  162.8467  176.1403
       363         6         6  166.1701  166.1701  179.4637
       364         6         6  162.8467  166.1701  182.7871
       365         6         6  162.8467  162.8467    0.0000
       366         6         6  159.5233  166.1701    0.0000
       367         6         6  156.1999  162.8467    0.0000
       368         6         6  152.8765  162.8467  182.7871
       369         6         6  152.8765  159.5233    0.0000
       370         6         6  156.1999  156.1999    0.0000
       371         6         6  159.5233  156.1999    3.3234
       372         6         6  159.5233  159.5233    6.6468
       373         6         6  156.1999  162.8467    6.6468
       374         6         6  159.5233  162.8467    9.9702
       375         6         6  159.5233  166.1701    6.6468
       376         6         6  162.8467  169.4935    6.6468
       377         6         6  162.8467  166.1701    9.9702
       378         6         6  162.8467  169.4935   13.2936
       379         6         6  166.1701  169.4935   16.6170
       380         6         6  166.1701  166.1701   19.9404
       381         6         6  166.1701  169.4935   23.2638
       382         6         6  169.4935  172.8169   23.2638
       383         6         6  166.1701  172.8169   19.9404
       384         6         6  169.4935  176.1403   19.9404
       385         7         7   29.9106   53.1744   89.7318
       386         7         7   29.9106   56.4978   86.4084
       387         7         7   33.2340   53.1744   86.4084
       388         7         7   33.2340   56.4978   83.0850
       389         7         7   36.5574   53.1744   83.0850
       390         7         7   33.2340   49.8510   83.0850
       391         7         7   36.5574   46.5276   83.0850
       392         7         7   36.5574   43.2042   79.7616
       393         7         7   33.2340   46.5276   79.7616
       394         7         7   36.5574   49.8510   79.7616
       395         7         7   36.5574   46.5276   76.4382
       396         7         7   39.8808   46.5276   73.1148
       397         7         7   39.8808   49.8510   69.7914
       398         7         7   43.2042   46.5276   69.7914
       399         7         7   43.2042   49.8510   66.4680
       400         7         7   46.5276   49.8510   63.1446
       401         7         7   49.8510   53.1744   63.1446
       402         7         7   49.8510   56.4978   59.8212
       403         7         7   46.5276   56.4978   63.1446
       404         7         7   46.5276   53.1744   66.4680
       405         7         7   49.8510   49.8510   66.4680
       406         7         7   53.1744   49.8510   63.1446
       407         7         7   56.4978   46.5276   63.1446
       408         7         7   53.1744   43.2042   63.1446
       409         7         7   53.1744   39.8808   66.4680
       410         7         7   49.8510   39.8808   69.7914
       411         7         7   46.5276   39.8808   66.4680
       412         7         7   49.8510   36.5574   66.4680
       413         7         7   49.8510   33.2340   69.7914
       414         7         7   53.1744   29.9106   69.7914
       415         7         7   53.1744   33.2340   73.1148
       416         7         7   49.8510   29.9106   73.1148
       417         7         7   49.8510   26.5872   69.7914
       418         7         7   53.1744   23.2638   69.7914
       419         7         7   56.4978   23.2638   73.1148
       420         7         7   56.4978   26.5872   76.4382
       421         7         7   59.8212   26.5872   79.7616
       422         7         7   56.4978   26.5872   83.0850
       423         7         7   56.4978   29.9106   86.4084
       424         7         7   53.1744   33.2340   86.4084
       425         7         7   49.8510   33.2340   89.7318
       426         7         7   53.1744   29.9106   89.7318
       427         7         7   49.8510   26.5872   89.7318
       428         7         7   53.1744   26.5872   86.4084
       429         7         7   53.1744   23.2638   83.0850
       430         7         7   56.4978   19.9404   83.0850
       431         7         7   53.1744   19.9404   79.7616
       432         7         7   49.8510   19.9404   83.0850
       433         7         7   53.1744   19.9404   86.4084
       434         7         7   53.1744   16.6170   89.7318
       435         7         7   56.4978   16.6170   93.0552
       436         7         7   56.4978   19.9404   89.7318
       437         7         7   59.8212   16.6170   89.7318
       438         7         7   56.4978   13.2936   89.7318
       439         7         7   53.1744   13.2936   93.0552
       440         7         7   49.8510    9.9702   93.0552
       441         7         7   49.8510   13.2936   89.7318
       442         7         7   53.1744    9.9702   89.7318
       443         7         7   53.1744    6.6468   93.0552
       444         7         7   53.1744    9.9702   96.3786
       445         7         7   56.4978    6.6468   96.3786
       446         7         7   56.4978    9.9702   99.7021
       447         7         7   53.1744    6.6468   99.7021
       448         7         7   56.4978    3.3234   99.7021
       449         8         8   46.5276  119.6425   33.2340
       450         8         8   49.8510  119.6425   36.5574
       451         8         8   53.1744  119.6425   33.2340
       452         8         8   56.4978  122.9659   33.2340
       453         8         8   53.1744  122.9659   29.9106
       454         8         8   56.4978  119.6425   29.9106
       455         8         8   59.8212  119.6425   33.2340
       456         8         8   59.8212  122.9659   36.5574
       457         8         8   63.1446  126.2893   36.5574
       458         8         8   59.8212  126.2893   39.8808