# Model for PE

      4889     atoms
      2048     bonds

      2049     atom types
         1     bond types

    0.0000  186.1105 xlo xhi
    0.0000  186.1105 ylo yhi
    0.0000  186.1105 zlo zhi

Masses

         1          56.00
         2          56.00
         3          56.00
         4          56.00
         5          56.00
         6          56.00
         7          56.00
         8          56.00
         9          56.00
        10          56.00
        11          56.00
        12          56.00
        13          56.00
        14          56.00
        15          56.00
        16          56.00
        17          56.00
        18          56.00
        19          56.00
        20          56.00
        21          56.00
        22          56.00
        23          56.00
        24          56.00
        25          56.00
        26          56.00
        27          56.00
        28          56.00
        29          56.00
        30          56.00
        31          56.00
        32          56.00
        33          56.00
        34          56.00
        35          56.00
        36          56.00
        37          56.00
        38          56.00
        39          56.00
        40          56.00
        41          56.00
        42          56.00
        43          56.00
        44          56.00
        45          56.00
        46          56.00
        47          56.00
        48          56.00
        49          56.00
        50          56.00
        51          56.00
        52          56.00
        53          56.00
        54          56.00
        55          56.00
        56          56.00
        57          56.00
        58          56.00
        59          56.00
        60          56.00
        61          56.00
        62          56.00
        63          56.00
        64          56.00
        65          56.00
        66          56.00
        67          56.00
        68          56.00
        69          56.00
        70          56.00
        71          56.00
        72          56.00
        73          56.00
        74          56.00
        75          56.00
        76          56.00
        77          56.00
        78          56.00
        79          56.00
        80          56.00
        81          56.00
        82          56.00
        83          56.00
        84          56.00
        85          56.00
        86          56.00
        87          56.00
        88          56.00
        89          56.00
        90          56.00
        91          56.00
        92          56.00
        93          56.00
        94          56.00
        95          56.00
        96          56.00
        97          56.00
        98          56.00
        99          56.00
       100          56.00
       101          56.00
       102          56.00
       103          56.00
       104          56.00
       105          56.00
       106          56.00
       107          56.00
       108          56.00
       109          56.00
       110          56.00
       111          56.00
       112          56.00
       113          56.00
       114          56.00
       115          56.00
       116          56.00
       117          56.00
       118          56.00
       119          56.00
       120          56.00
       121          56.00
       122          56.00
       123          56.00
       124          56.00
       125          56.00
       126          56.00
       127          56.00
       128          56.00
       129          56.00
       130          56.00
       131          56.00
       132          56.00
       133          56.00
       134          56.00
       135          56.00
       136          56.00
       137          56.00
       138          56.00
       139          56.00
       140          56.00
       141          56.00
       142          56.00
       143          56.00
       144          56.00
       145          56.00
       146          56.00
       147          56.00
       148          56.00
       149          56.00
       150          56.00
       151          56.00
       152          56.00
       153          56.00
       154          56.00
       155          56.00
       156          56.00
       157          56.00
       158          56.00
       159          56.00
       160          56.00
       161          56.00
       162          56.00
       163          56.00
       164          56.00
       165          56.00
       166          56.00
       167          56.00
       168          56.00
       169          56.00
       170          56.00
       171          56.00
       172          56.00
       173          56.00
       174          56.00
       175          56.00
       176          56.00
       177          56.00
       178          56.00
       179          56.00
       180          56.00
       181          56.00
       182          56.00
       183          56.00
       184          56.00
       185          56.00
       186          56.00
       187          56.00
       188          56.00
       189          56.00
       190          56.00
       191          56.00
       192          56.00
       193          56.00
       194          56.00
       195          56.00
       196          56.00
       197          56.00
       198          56.00
       199          56.00
       200          56.00
       201          56.00
       202          56.00
       203          56.00
       204          56.00
       205          56.00
       206          56.00
       207          56.00
       208          56.00
       209          56.00
       210          56.00
       211          56.00
       212          56.00
       213          56.00
       214          56.00
       215          56.00
       216          56.00
       217          56.00
       218          56.00
       219          56.00
       220          56.00
       221          56.00
       222          56.00
       223          56.00
       224          56.00
       225          56.00
       226          56.00
       227          56.00
       228          56.00
       229          56.00
       230          56.00
       231          56.00
       232          56.00
       233          56.00
       234          56.00
       235          56.00
       236          56.00
       237          56.00
       238          56.00
       239          56.00
       240          56.00
       241          56.00
       242          56.00
       243          56.00
       244          56.00
       245          56.00
       246          56.00
       247          56.00
       248          56.00
       249          56.00
       250          56.00
       251          56.00
       252          56.00
       253          56.00
       254          56.00
       255          56.00
       256          56.00
       257          56.00
       258          56.00
       259          56.00
       260          56.00
       261          56.00
       262          56.00
       263          56.00
       264          56.00
       265          56.00
       266          56.00
       267          56.00
       268          56.00
       269          56.00
       270          56.00
       271          56.00
       272          56.00
       273          56.00
       274          56.00
       275          56.00
       276          56.00
       277          56.00
       278          56.00
       279          56.00
       280          56.00
       281          56.00
       282          56.00
       283          56.00
       284          56.00
       285          56.00
       286          56.00
       287          56.00
       288          56.00
       289          56.00
       290          56.00
       291          56.00
       292          56.00
       293          56.00
       294          56.00
       295          56.00
       296          56.00
       297          56.00
       298          56.00
       299          56.00
       300          56.00
       301          56.00
       302          56.00
       303          56.00
       304          56.00
       305          56.00
       306          56.00
       307          56.00
       308          56.00
       309          56.00
       310          56.00
       311          56.00
       312          56.00
       313          56.00
       314          56.00
       315          56.00
       316          56.00
       317          56.00
       318          56.00
       319          56.00
       320          56.00
       321          56.00
       322          56.00
       323          56.00
       324          56.00
       325          56.00
       326          56.00
       327          56.00
       328          56.00
       329          56.00
       330          56.00
       331          56.00
       332          56.00
       333          56.00
       334          56.00
       335          56.00
       336          56.00
       337          56.00
       338          56.00
       339          56.00
       340          56.00
       341          56.00
       342          56.00
       343          56.00
       344          56.00
       345          56.00
       346          56.00
       347          56.00
       348          56.00
       349          56.00
       350          56.00
       351          56.00
       352          56.00
       353          56.00
       354          56.00
       355          56.00
       356          56.00
       357          56.00
       358          56.00
       359          56.00
       360          56.00
       361          56.00
       362          56.00
       363          56.00
       364          56.00
       365          56.00
       366          56.00
       367          56.00
       368          56.00
       369          56.00
       370          56.00
       371          56.00
       372          56.00
       373          56.00
       374          56.00
       375          56.00
       376          56.00
       377          56.00
       378          56.00
       379          56.00
       380          56.00
       381          56.00
       382          56.00
       383          56.00
       384          56.00
       385          56.00
       386          56.00
       387          56.00
       388          56.00
       389          56.00
       390          56.00
       391          56.00
       392          56.00
       393          56.00
       394          56.00
       395          56.00
       396          56.00
       397          56.00
       398          56.00
       399          56.00
       400          56.00
       401          56.00
       402          56.00
       403          56.00
       404          56.00
       405          56.00
       406          56.00
       407          56.00
       408          56.00
       409          56.00
       410          56.00
       411          56.00
       412          56.00
       413          56.00
       414          56.00
       415          56.00
       416          56.00
       417          56.00
       418          56.00
       419          56.00
       420          56.00
       421          56.00
       422          56.00
       423          56.00
       424          56.00
       425          56.00
       426          56.00
       427          56.00
       428          56.00
       429          56.00
       430          56.00
       431          56.00
       432          56.00
       433          56.00
       434          56.00
       435          56.00
       436          56.00
       437          56.00
       438          56.00
       439          56.00
       440          56.00
       441          56.00
       442          56.00
       443          56.00
       444          56.00
       445          56.00
       446          56.00
       447          56.00
       448          56.00
       449          56.00
       450          56.00
       451          56.00
       452          56.00
       453          56.00
       454          56.00
       455          56.00
       456          56.00
       457          56.00
       458          56.00
       459          56.00
       460          56.00
       461          56.00
       462          56.00
       463          56.00
       464          56.00
       465          56.00
       466          56.00
       467          56.00
       468          56.00
       469          56.00
       470          56.00
       471          56.00
       472          56.00
       473          56.00
       474          56.00
       475          56.00
       476          56.00
       477          56.00
       478          56.00
       479          56.00
       480          56.00
       481          56.00
       482          56.00
       483          56.00
       484          56.00
       485          56.00
       486          56.00
       487          56.00
       488          56.00
       489          56.00
       490          56.00
       491          56.00
       492          56.00
       493          56.00
       494          56.00
       495          56.00
       496          56.00
       497          56.00
       498          56.00
       499          56.00
       500          56.00
       501          56.00
       502          56.00
       503          56.00
       504          56.00
       505          56.00
       506          56.00
       507          56.00
       508          56.00
       509          56.00
       510          56.00
       511          56.00
       512          56.00
       513          56.00
       514          56.00
       515          56.00
       516          56.00
       517          56.00
       518          56.00
       519          56.00
       520          56.00
       521          56.00
       522          56.00
       523          56.00
       524          56.00
       525          56.00
       526          56.00
       527          56.00
       528          56.00
       529          56.00
       530          56.00
       531          56.00
       532          56.00
       533          56.00
       534          56.00
       535          56.00
       536          56.00
       537          56.00
       538          56.00
       539          56.00
       540          56.00
       541          56.00
       542          56.00
       543          56.00
       544          56.00
       545          56.00
       546          56.00
       547          56.00
       548          56.00
       549          56.00
       550          56.00
       551          56.00
       552          56.00
       553          56.00
       554          56.00
       555          56.00
       556          56.00
       557          56.00
       558          56.00
       559          56.00
       560          56.00
       561          56.00
       562          56.00
       563          56.00
       564          56.00
       565          56.00
       566          56.00
       567          56.00
       568          56.00
       569          56.00
       570          56.00
       571          56.00
       572          56.00
       573          56.00
       574          56.00
       575          56.00
       576          56.00
       577          56.00
       578          56.00
       579          56.00
       580          56.00
       581          56.00
       582          56.00
       583          56.00
       584          56.00
       585          56.00
       586          56.00
       587          56.00
       588          56.00
       589          56.00
       590          56.00
       591          56.00
       592          56.00
       593          56.00
       594          56.00
       595          56.00
       596          56.00
       597          56.00
       598          56.00
       599          56.00
       600          56.00
       601          56.00
       602          56.00
       603          56.00
       604          56.00
       605          56.00
       606          56.00
       607          56.00
       608          56.00
       609          56.00
       610          56.00
       611          56.00
       612          56.00
       613          56.00
       614          56.00
       615          56.00
       616          56.00
       617          56.00
       618          56.00
       619          56.00
       620          56.00
       621          56.00
       622          56.00
       623          56.00
       624          56.00
       625          56.00
       626          56.00
       627          56.00
       628          56.00
       629          56.00
       630          56.00
       631          56.00
       632          56.00
       633          56.00
       634          56.00
       635          56.00
       636          56.00
       637          56.00
       638          56.00
       639          56.00
       640          56.00
       641          56.00
       642          56.00
       643          56.00
       644          56.00
       645          56.00
       646          56.00
       647          56.00
       648          56.00
       649          56.00
       650          56.00
       651          56.00
       652          56.00
       653          56.00
       654          56.00
       655          56.00
       656          56.00
       657          56.00
       658          56.00
       659          56.00
       660          56.00
       661          56.00
       662          56.00
       663          56.00
       664          56.00
       665          56.00
       666          56.00
       667          56.00
       668          56.00
       669          56.00
       670          56.00
       671          56.00
       672          56.00
       673          56.00
       674          56.00
       675          56.00
       676          56.00
       677          56.00
       678          56.00
       679          56.00
       680          56.00
       681          56.00
       682          56.00
       683          56.00
       684          56.00
       685          56.00
       686          56.00
       687          56.00
       688          56.00
       689          56.00
       690          56.00
       691          56.00
       692          56.00
       693          56.00
       694          56.00
       695          56.00
       696          56.00
       697          56.00
       698          56.00
       699          56.00
       700          56.00
       701          56.00
       702          56.00
       703          56.00
       704          56.00
       705          56.00
       706          56.00
       707          56.00
       708          56.00
       709          56.00
       710          56.00
       711          56.00
       712          56.00
       713          56.00
       714          56.00
       715          56.00
       716          56.00
       717          56.00
       718          56.00
       719          56.00
       720          56.00
       721          56.00
       722          56.00
       723          56.00
       724          56.00
       725          56.00
       726          56.00
       727          56.00
       728          56.00
       729          56.00
       730          56.00
       731          56.00
       732          56.00
       733          56.00
       734          56.00
       735          56.00
       736          56.00
       737          56.00
       738          56.00
       739          56.00
       740          56.00
       741          56.00
       742          56.00
       743          56.00
       744          56.00
       745          56.00
       746          56.00
       747          56.00
       748          56.00
       749          56.00
       750          56.00
       751          56.00
       752          56.00
       753          56.00
       754          56.00
       755          56.00
       756          56.00
       757          56.00
       758          56.00
       759          56.00
       760          56.00
       761          56.00
       762          56.00
       763          56.00
       764          56.00
       765          56.00
       766          56.00
       767          56.00
       768          56.00
       769          56.00
       770          56.00
       771          56.00
       772          56.00
       773          56.00
       774          56.00
       775          56.00
       776          56.00
       777          56.00
       778          56.00
       779          56.00
       780          56.00
       781          56.00
       782          56.00
       783          56.00
       784          56.00
       785          56.00
       786          56.00
       787          56.00
       788          56.00
       789          56.00
       790          56.00
       791          56.00
       792          56.00
       793          56.00
       794          56.00
       795          56.00
       796          56.00
       797          56.00
       798          56.00
       799          56.00
       800          56.00
       801          56.00
       802          56.00
       803          56.00
       804          56.00
       805          56.00
       806          56.00
       807          56.00
       808          56.00
       809          56.00
       810          56.00
       811          56.00
       812          56.00
       813          56.00
       814          56.00
       815          56.00
       816          56.00
       817          56.00
       818          56.00
       819          56.00
       820          56.00
       821          56.00
       822          56.00
       823          56.00
       824          56.00
       825          56.00
       826          56.00
       827          56.00
       828          56.00
       829          56.00
       830          56.00
       831          56.00
       832          56.00
       833          56.00
       834          56.00
       835          56.00
       836          56.00
       837          56.00
       838          56.00
       839          56.00
       840          56.00
       841          56.00
       842          56.00
       843          56.00
       844          56.00
       845          56.00
       846          56.00
       847          56.00
       848          56.00
       849          56.00
       850          56.00
       851          56.00
       852          56.00
       853          56.00
       854          56.00
       855          56.00
       856          56.00
       857          56.00
       858          56.00
       859          56.00
       860          56.00
       861          56.00
       862          56.00
       863          56.00
       864          56.00
       865          56.00
       866          56.00
       867          56.00
       868          56.00
       869          56.00
       870          56.00
       871          56.00
       872          56.00
       873          56.00
       874          56.00
       875          56.00
       876          56.00
       877          56.00
       878          56.00
       879          56.00
       880          56.00
       881          56.00
       882          56.00
       883          56.00
       884          56.00
       885          56.00
       886          56.00
       887          56.00
       888          56.00
       889          56.00
       890          56.00
       891          56.00
       892          56.00
       893          56.00
       894          56.00
       895          56.00
       896          56.00
       897          56.00
       898          56.00
       899          56.00
       900          56.00
       901          56.00
       902          56.00
       903          56.00
       904          56.00
       905          56.00
       906          56.00
       907          56.00
       908          56.00
       909          56.00
       910          56.00
       911          56.00
       912          56.00
       913          56.00
       914          56.00
       915          56.00
       916          56.00
       917          56.00
       918          56.00
       919          56.00
       920          56.00
       921          56.00
       922          56.00
       923          56.00
       924          56.00
       925          56.00
       926          56.00
       927          56.00
       928          56.00
       929          56.00
       930          56.00
       931          56.00
       932          56.00
       933          56.00
       934          56.00
       935          56.00
       936          56.00
       937          56.00
       938          56.00
       939          56.00
       940          56.00
       941          56.00
       942          56.00
       943          56.00
       944          56.00
       945          56.00
       946          56.00
       947          56.00
       948          56.00
       949          56.00
       950          56.00
       951          56.00
       952          56.00
       953          56.00
       954          56.00
       955          56.00
       956          56.00
       957          56.00
       958          56.00
       959          56.00
       960          56.00
       961          56.00
       962          56.00
       963          56.00
       964          56.00
       965          56.00
       966          56.00
       967          56.00
       968          56.00
       969          56.00
       970          56.00
       971          56.00
       972          56.00
       973          56.00
       974          56.00
       975          56.00
       976          56.00
       977          56.00
       978          56.00
       979          56.00
       980          56.00
       981          56.00
       982          56.00
       983          56.00
       984          56.00
       985          56.00
       986          56.00
       987          56.00
       988          56.00
       989          56.00
       990          56.00
       991          56.00
       992          56.00
       993          56.00
       994          56.00
       995          56.00
       996          56.00
       997          56.00
       998          56.00
       999          56.00
      1000          56.00
      1001          56.00
      1002          56.00
      1003          56.00
      1004          56.00
      1005          56.00
      1006          56.00
      1007          56.00
      1008          56.00
      1009          56.00
      1010          56.00
      1011          56.00
      1012          56.00
      1013          56.00
      1014          56.00
      1015          56.00
      1016          56.00
      1017          56.00
      1018          56.00
      1019          56.00
      1020          56.00
      1021          56.00
      1022          56.00
      1023          56.00
      1024          56.00
      1025          56.00
      1026          56.00
      1027          56.00
      1028          56.00
      1029          56.00
      1030          56.00
      1031          56.00
      1032          56.00
      1033          56.00
      1034          56.00
      1035          56.00
      1036          56.00
      1037          56.00
      1038          56.00
      1039          56.00
      1040          56.00
      1041          56.00
      1042          56.00
      1043          56.00
      1044          56.00
      1045          56.00
      1046          56.00
      1047          56.00
      1048          56.00
      1049          56.00
      1050          56.00
      1051          56.00
      1052          56.00
      1053          56.00
      1054          56.00
      1055          56.00
      1056          56.00
      1057          56.00
      1058          56.00
      1059          56.00
      1060          56.00
      1061          56.00
      1062          56.00
      1063          56.00
      1064          56.00
      1065          56.00
      1066          56.00
      1067          56.00
      1068          56.00
      1069          56.00
      1070          56.00
      1071          56.00
      1072          56.00
      1073          56.00
      1074          56.00
      1075          56.00
      1076          56.00
      1077          56.00
      1078          56.00
      1079          56.00
      1080          56.00
      1081          56.00
      1082          56.00
      1083          56.00
      1084          56.00
      1085          56.00
      1086          56.00
      1087          56.00
      1088          56.00
      1089          56.00
      1090          56.00
      1091          56.00
      1092          56.00
      1093          56.00
      1094          56.00
      1095          56.00
      1096          56.00
      1097          56.00
      1098          56.00
      1099          56.00
      1100          56.00
      1101          56.00
      1102          56.00
      1103          56.00
      1104          56.00
      1105          56.00
      1106          56.00
      1107          56.00
      1108          56.00
      1109          56.00
      1110          56.00
      1111          56.00
      1112          56.00
      1113          56.00
      1114          56.00
      1115          56.00
      1116          56.00
      1117          56.00
      1118          56.00
      1119          56.00
      1120          56.00
      1121          56.00
      1122          56.00
      1123          56.00
      1124          56.00
      1125          56.00
      1126          56.00
      1127          56.00
      1128          56.00
      1129          56.00
      1130          56.00
      1131          56.00
      1132          56.00
      1133          56.00
      1134          56.00
      1135          56.00
      1136          56.00
      1137          56.00
      1138          56.00
      1139          56.00
      1140          56.00
      1141          56.00
      1142          56.00
      1143          56.00
      1144          56.00
      1145          56.00